V -t * -v 1.0a5 -a 0
A -t * -n 1 -p 0 -o 0x7fffffff -c 30 -a 1
A -t * -h 1 -m 1073741823 -s 0
n -t * -a 4 -s 4 -S UP -v circle -c black -i black
n -t * -a 0 -s 0 -S UP -v circle -c black -i black
n -t * -a 5 -s 5 -S UP -v circle -c black -i black
n -t * -a 1 -s 1 -S UP -v circle -c black -i black
n -t * -a 6 -s 6 -S UP -v circle -c black -i black
n -t * -a 2 -s 2 -S UP -v circle -c black -i black
n -t * -a 3 -s 3 -S UP -v circle -c black -i black
l -t * -s 0 -d 1 -S UP -r 100000 -D 0.10000000000000001 -c black
l -t * -s 2 -d 1 -S UP -r 100000 -D 0.10000000000000001 -c black
l -t * -s 2 -d 0 -S UP -r 100000 -D 0.10000000000000001 -c black
l -t * -s 3 -d 0 -S UP -r 100000 -D 0.10000000000000001 -c black
l -t * -s 4 -d 0 -S UP -r 100000 -D 0.10000000000000001 -c black
l -t * -s 5 -d 0 -S UP -r 100000 -D 0.10000000000000001 -c black
l -t * -s 6 -d 2 -S UP -r 100000 -D 0.10000000000000001 -c black
+ -t 0.000169788487334637 -s 0 -d 1 -p rtProtoDV -e 7 -c 0 -i 0 -a 0 -x {0.2 1.1 -1 ------- null}
- -t 0.000169788487334637 -s 0 -d 1 -p rtProtoDV -e 7 -c 0 -i 0 -a 0 -x {0.2 1.1 -1 ------- null}
h -t 0.000169788487334637 -s 0 -d 1 -p rtProtoDV -e 7 -c 0 -i 0 -a 0 -x {0.2 1.1 -1 ------- null}
+ -t 0.000169788487334637 -s 0 -d 2 -p rtProtoDV -e 7 -c 0 -i 1 -a 0 -x {0.2 2.2 -1 ------- null}
- -t 0.000169788487334637 -s 0 -d 2 -p rtProtoDV -e 7 -c 0 -i 1 -a 0 -x {0.2 2.2 -1 ------- null}
h -t 0.000169788487334637 -s 0 -d 2 -p rtProtoDV -e 7 -c 0 -i 1 -a 0 -x {0.2 2.2 -1 ------- null}
+ -t 0.000169788487334637 -s 0 -d 3 -p rtProtoDV -e 7 -c 0 -i 2 -a 0 -x {0.2 3.1 -1 ------- null}
- -t 0.000169788487334637 -s 0 -d 3 -p rtProtoDV -e 7 -c 0 -i 2 -a 0 -x {0.2 3.1 -1 ------- null}
h -t 0.000169788487334637 -s 0 -d 3 -p rtProtoDV -e 7 -c 0 -i 2 -a 0 -x {0.2 3.1 -1 ------- null}
+ -t 0.000169788487334637 -s 0 -d 4 -p rtProtoDV -e 7 -c 0 -i 3 -a 0 -x {0.2 4.1 -1 ------- null}
- -t 0.000169788487334637 -s 0 -d 4 -p rtProtoDV -e 7 -c 0 -i 3 -a 0 -x {0.2 4.1 -1 ------- null}
h -t 0.000169788487334637 -s 0 -d 4 -p rtProtoDV -e 7 -c 0 -i 3 -a 0 -x {0.2 4.1 -1 ------- null}
+ -t 0.000169788487334637 -s 0 -d 5 -p rtProtoDV -e 7 -c 0 -i 4 -a 0 -x {0.2 5.1 -1 ------- null}
- -t 0.000169788487334637 -s 0 -d 5 -p rtProtoDV -e 7 -c 0 -i 4 -a 0 -x {0.2 5.1 -1 ------- null}
h -t 0.000169788487334637 -s 0 -d 5 -p rtProtoDV -e 7 -c 0 -i 4 -a 0 -x {0.2 5.1 -1 ------- null}
+ -t 0.00710233021858257 -s 2 -d 0 -p rtProtoDV -e 7 -c 0 -i 5 -a 0 -x {2.2 0.2 -1 ------- null}
- -t 0.00710233021858257 -s 2 -d 0 -p rtProtoDV -e 7 -c 0 -i 5 -a 0 -x {2.2 0.2 -1 ------- null}
h -t 0.00710233021858257 -s 2 -d 0 -p rtProtoDV -e 7 -c 0 -i 5 -a 0 -x {2.2 0.2 -1 ------- null}
+ -t 0.00710233021858257 -s 2 -d 1 -p rtProtoDV -e 7 -c 0 -i 6 -a 0 -x {2.2 1.1 -1 ------- null}
- -t 0.00710233021858257 -s 2 -d 1 -p rtProtoDV -e 7 -c 0 -i 6 -a 0 -x {2.2 1.1 -1 ------- null}
h -t 0.00710233021858257 -s 2 -d 1 -p rtProtoDV -e 7 -c 0 -i 6 -a 0 -x {2.2 1.1 -1 ------- null}
+ -t 0.00710233021858257 -s 2 -d 6 -p rtProtoDV -e 7 -c 0 -i 7 -a 0 -x {2.2 6.1 -1 ------- null}
- -t 0.00710233021858257 -s 2 -d 6 -p rtProtoDV -e 7 -c 0 -i 7 -a 0 -x {2.2 6.1 -1 ------- null}
h -t 0.00710233021858257 -s 2 -d 6 -p rtProtoDV -e 7 -c 0 -i 7 -a 0 -x {2.2 6.1 -1 ------- null}
+ -t 0.04406133552271 -s 3 -d 0 -p rtProtoDV -e 7 -c 0 -i 8 -a 0 -x {3.1 0.2 -1 ------- null}
- -t 0.04406133552271 -s 3 -d 0 -p rtProtoDV -e 7 -c 0 -i 8 -a 0 -x {3.1 0.2 -1 ------- null}
h -t 0.04406133552271 -s 3 -d 0 -p rtProtoDV -e 7 -c 0 -i 8 -a 0 -x {3.1 0.2 -1 ------- null}
r -t 0.100729788487335 -s 0 -d 1 -p rtProtoDV -e 7 -c 0 -i 0 -a 0 -x {0.2 1.1 -1 ------- null}
+ -t 0.100729788487335 -s 1 -d 0 -p rtProtoDV -e 7 -c 0 -i 9 -a 0 -x {1.1 0.2 -1 ------- null}
- -t 0.100729788487335 -s 1 -d 0 -p rtProtoDV -e 7 -c 0 -i 9 -a 0 -x {1.1 0.2 -1 ------- null}
h -t 0.100729788487335 -s 1 -d 0 -p rtProtoDV -e 7 -c 0 -i 9 -a 0 -x {1.1 0.2 -1 ------- null}
+ -t 0.100729788487335 -s 1 -d 0 -p rtProtoDV -e 7 -c 0 -i 10 -a 0 -x {1.1 2.2 -1 ------- null}
r -t 0.100729788487335 -s 0 -d 2 -p rtProtoDV -e 7 -c 0 -i 1 -a 0 -x {0.2 2.2 -1 ------- null}
+ -t 0.100729788487335 -s 2 -d 0 -p rtProtoDV -e 7 -c 0 -i 11 -a 0 -x {2.2 0.2 -1 ------- null}
- -t 0.100729788487335 -s 2 -d 0 -p rtProtoDV -e 7 -c 0 -i 11 -a 0 -x {2.2 0.2 -1 ------- null}
h -t 0.100729788487335 -s 2 -d 0 -p rtProtoDV -e 7 -c 0 -i 11 -a 0 -x {2.2 0.2 -1 ------- null}
+ -t 0.100729788487335 -s 2 -d 0 -p rtProtoDV -e 7 -c 0 -i 12 -a 0 -x {2.2 1.1 -1 ------- null}
+ -t 0.100729788487335 -s 2 -d 6 -p rtProtoDV -e 7 -c 0 -i 13 -a 0 -x {2.2 6.1 -1 ------- null}
- -t 0.100729788487335 -s 2 -d 6 -p rtProtoDV -e 7 -c 0 -i 13 -a 0 -x {2.2 6.1 -1 ------- null}
h -t 0.100729788487335 -s 2 -d 6 -p rtProtoDV -e 7 -c 0 -i 13 -a 0 -x {2.2 6.1 -1 ------- null}
r -t 0.100729788487335 -s 0 -d 3 -p rtProtoDV -e 7 -c 0 -i 2 -a 0 -x {0.2 3.1 -1 ------- null}
+ -t 0.100729788487335 -s 3 -d 0 -p rtProtoDV -e 7 -c 0 -i 14 -a 0 -x {3.1 0.2 -1 ------- null}
- -t 0.100729788487335 -s 3 -d 0 -p rtProtoDV -e 7 -c 0 -i 14 -a 0 -x {3.1 0.2 -1 ------- null}
h -t 0.100729788487335 -s 3 -d 0 -p rtProtoDV -e 7 -c 0 -i 14 -a 0 -x {3.1 0.2 -1 ------- null}
r -t 0.100729788487335 -s 0 -d 4 -p rtProtoDV -e 7 -c 0 -i 3 -a 0 -x {0.2 4.1 -1 ------- null}
+ -t 0.100729788487335 -s 4 -d 0 -p rtProtoDV -e 7 -c 0 -i 15 -a 0 -x {4.1 0.2 -1 ------- null}
- -t 0.100729788487335 -s 4 -d 0 -p rtProtoDV -e 7 -c 0 -i 15 -a 0 -x {4.1 0.2 -1 ------- null}
h -t 0.100729788487335 -s 4 -d 0 -p rtProtoDV -e 7 -c 0 -i 15 -a 0 -x {4.1 0.2 -1 ------- null}
r -t 0.100729788487335 -s 0 -d 5 -p rtProtoDV -e 7 -c 0 -i 4 -a 0 -x {0.2 5.1 -1 ------- null}
+ -t 0.100729788487335 -s 5 -d 0 -p rtProtoDV -e 7 -c 0 -i 16 -a 0 -x {5.1 0.2 -1 ------- null}
- -t 0.100729788487335 -s 5 -d 0 -p rtProtoDV -e 7 -c 0 -i 16 -a 0 -x {5.1 0.2 -1 ------- null}
h -t 0.100729788487335 -s 5 -d 0 -p rtProtoDV -e 7 -c 0 -i 16 -a 0 -x {5.1 0.2 -1 ------- null}
- -t 0.101289788487335 -s 1 -d 0 -p rtProtoDV -e 7 -c 0 -i 10 -a 0 -x {1.1 2.2 -1 ------- null}
h -t 0.101289788487335 -s 1 -d 0 -p rtProtoDV -e 7 -c 0 -i 10 -a 0 -x {1.1 2.2 -1 ------- null}
- -t 0.101289788487335 -s 2 -d 0 -p rtProtoDV -e 7 -c 0 -i 12 -a 0 -x {2.2 1.1 -1 ------- null}
h -t 0.101289788487335 -s 2 -d 0 -p rtProtoDV -e 7 -c 0 -i 12 -a 0 -x {2.2 1.1 -1 ------- null}
r -t 0.107662330218583 -s 2 -d 0 -p rtProtoDV -e 7 -c 0 -i 5 -a 0 -x {2.2 0.2 -1 ------- null}
+ -t 0.107662330218583 -s 0 -d 2 -p rtProtoDV -e 7 -c 0 -i 17 -a 0 -x {0.2 1.1 -1 ------- null}
- -t 0.107662330218583 -s 0 -d 2 -p rtProtoDV -e 7 -c 0 -i 17 -a 0 -x {0.2 1.1 -1 ------- null}
h -t 0.107662330218583 -s 0 -d 2 -p rtProtoDV -e 7 -c 0 -i 17 -a 0 -x {0.2 1.1 -1 ------- null}
+ -t 0.107662330218583 -s 0 -d 2 -p rtProtoDV -e 7 -c 0 -i 18 -a 0 -x {0.2 2.2 -1 ------- null}
+ -t 0.107662330218583 -s 0 -d 3 -p rtProtoDV -e 7 -c 0 -i 19 -a 0 -x {0.2 3.1 -1 ------- null}
- -t 0.107662330218583 -s 0 -d 3 -p rtProtoDV -e 7 -c 0 -i 19 -a 0 -x {0.2 3.1 -1 ------- null}
h -t 0.107662330218583 -s 0 -d 3 -p rtProtoDV -e 7 -c 0 -i 19 -a 0 -x {0.2 3.1 -1 ------- null}
+ -t 0.107662330218583 -s 0 -d 4 -p rtProtoDV -e 7 -c 0 -i 20 -a 0 -x {0.2 4.1 -1 ------- null}
- -t 0.107662330218583 -s 0 -d 4 -p rtProtoDV -e 7 -c 0 -i 20 -a 0 -x {0.2 4.1 -1 ------- null}
h -t 0.107662330218583 -s 0 -d 4 -p rtProtoDV -e 7 -c 0 -i 20 -a 0 -x {0.2 4.1 -1 ------- null}
+ -t 0.107662330218583 -s 0 -d 5 -p rtProtoDV -e 7 -c 0 -i 21 -a 0 -x {0.2 5.1 -1 ------- null}
- -t 0.107662330218583 -s 0 -d 5 -p rtProtoDV -e 7 -c 0 -i 21 -a 0 -x {0.2 5.1 -1 ------- null}
h -t 0.107662330218583 -s 0 -d 5 -p rtProtoDV -e 7 -c 0 -i 21 -a 0 -x {0.2 5.1 -1 ------- null}
r -t 0.107662330218583 -s 2 -d 1 -p rtProtoDV -e 7 -c 0 -i 6 -a 0 -x {2.2 1.1 -1 ------- null}
+ -t 0.107662330218583 -s 1 -d 0 -p rtProtoDV -e 7 -c 0 -i 22 -a 0 -x {1.1 0.2 -1 ------- null}
- -t 0.107662330218583 -s 1 -d 0 -p rtProtoDV -e 7 -c 0 -i 22 -a 0 -x {1.1 0.2 -1 ------- null}
h -t 0.107662330218583 -s 1 -d 0 -p rtProtoDV -e 7 -c 0 -i 22 -a 0 -x {1.1 0.2 -1 ------- null}
+ -t 0.107662330218583 -s 1 -d 2 -p rtProtoDV -e 7 -c 0 -i 23 -a 0 -x {1.1 2.2 -1 ------- null}
- -t 0.107662330218583 -s 1 -d 2 -p rtProtoDV -e 7 -c 0 -i 23 -a 0 -x {1.1 2.2 -1 ------- null}
h -t 0.107662330218583 -s 1 -d 2 -p rtProtoDV -e 7 -c 0 -i 23 -a 0 -x {1.1 2.2 -1 ------- null}
r -t 0.107662330218583 -s 2 -d 6 -p rtProtoDV -e 7 -c 0 -i 7 -a 0 -x {2.2 6.1 -1 ------- null}
+ -t 0.107662330218583 -s 6 -d 2 -p rtProtoDV -e 7 -c 0 -i 24 -a 0 -x {6.1 2.2 -1 ------- null}
- -t 0.107662330218583 -s 6 -d 2 -p rtProtoDV -e 7 -c 0 -i 24 -a 0 -x {6.1 2.2 -1 ------- null}
h -t 0.107662330218583 -s 6 -d 2 -p rtProtoDV -e 7 -c 0 -i 24 -a 0 -x {6.1 2.2 -1 ------- null}
- -t 0.108222330218583 -s 0 -d 2 -p rtProtoDV -e 7 -c 0 -i 18 -a 0 -x {0.2 2.2 -1 ------- null}
h -t 0.108222330218583 -s 0 -d 2 -p rtProtoDV -e 7 -c 0 -i 18 -a 0 -x {0.2 2.2 -1 ------- null}
r -t 0.14462133552271 -s 3 -d 0 -p rtProtoDV -e 7 -c 0 -i 8 -a 0 -x {3.1 0.2 -1 ------- null}
+ -t 0.14462133552271 -s 0 -d 2 -p rtProtoDV -e 7 -c 0 -i 25 -a 0 -x {0.2 1.1 -1 ------- null}
- -t 0.14462133552271 -s 0 -d 2 -p rtProtoDV -e 7 -c 0 -i 25 -a 0 -x {0.2 1.1 -1 ------- null}
h -t 0.14462133552271 -s 0 -d 2 -p rtProtoDV -e 7 -c 0 -i 25 -a 0 -x {0.2 1.1 -1 ------- null}
+ -t 0.14462133552271 -s 0 -d 2 -p rtProtoDV -e 7 -c 0 -i 26 -a 0 -x {0.2 2.2 -1 ------- null}
+ -t 0.14462133552271 -s 0 -d 3 -p rtProtoDV -e 7 -c 0 -i 27 -a 0 -x {0.2 3.1 -1 ------- null}
- -t 0.14462133552271 -s 0 -d 3 -p rtProtoDV -e 7 -c 0 -i 27 -a 0 -x {0.2 3.1 -1 ------- null}
h -t 0.14462133552271 -s 0 -d 3 -p rtProtoDV -e 7 -c 0 -i 27 -a 0 -x {0.2 3.1 -1 ------- null}
+ -t 0.14462133552271 -s 0 -d 4 -p rtProtoDV -e 7 -c 0 -i 28 -a 0 -x {0.2 4.1 -1 ------- null}
- -t 0.14462133552271 -s 0 -d 4 -p rtProtoDV -e 7 -c 0 -i 28 -a 0 -x {0.2 4.1 -1 ------- null}
h -t 0.14462133552271 -s 0 -d 4 -p rtProtoDV -e 7 -c 0 -i 28 -a 0 -x {0.2 4.1 -1 ------- null}
+ -t 0.14462133552271 -s 0 -d 5 -p rtProtoDV -e 7 -c 0 -i 29 -a 0 -x {0.2 5.1 -1 ------- null}
- -t 0.14462133552271 -s 0 -d 5 -p rtProtoDV -e 7 -c 0 -i 29 -a 0 -x {0.2 5.1 -1 ------- null}
h -t 0.14462133552271 -s 0 -d 5 -p rtProtoDV -e 7 -c 0 -i 29 -a 0 -x {0.2 5.1 -1 ------- null}
- -t 0.14518133552271 -s 0 -d 2 -p rtProtoDV -e 7 -c 0 -i 26 -a 0 -x {0.2 2.2 -1 ------- null}
h -t 0.14518133552271 -s 0 -d 2 -p rtProtoDV -e 7 -c 0 -i 26 -a 0 -x {0.2 2.2 -1 ------- null}
+ -t 0.156480885882155 -s 6 -d 2 -p rtProtoDV -e 7 -c 0 -i 30 -a 0 -x {6.1 2.2 -1 ------- null}
- -t 0.156480885882155 -s 6 -d 2 -p rtProtoDV -e 7 -c 0 -i 30 -a 0 -x {6.1 2.2 -1 ------- null}
h -t 0.156480885882155 -s 6 -d 2 -p rtProtoDV -e 7 -c 0 -i 30 -a 0 -x {6.1 2.2 -1 ------- null}
r -t 0.201289788487335 -s 1 -d 0 -p rtProtoDV -e 7 -c 0 -i 9 -a 0 -x {1.1 0.2 -1 ------- null}
+ -t 0.201289788487335 -s 0 -d 1 -p rtProtoDV -e 7 -c 0 -i 31 -a 0 -x {0.2 1.1 -1 ------- null}
- -t 0.201289788487335 -s 0 -d 1 -p rtProtoDV -e 7 -c 0 -i 31 -a 0 -x {0.2 1.1 -1 ------- null}
h -t 0.201289788487335 -s 0 -d 1 -p rtProtoDV -e 7 -c 0 -i 31 -a 0 -x {0.2 1.1 -1 ------- null}
+ -t 0.201289788487335 -s 0 -d 2 -p rtProtoDV -e 7 -c 0 -i 32 -a 0 -x {0.2 2.2 -1 ------- null}
- -t 0.201289788487335 -s 0 -d 2 -p rtProtoDV -e 7 -c 0 -i 32 -a 0 -x {0.2 2.2 -1 ------- null}
h -t 0.201289788487335 -s 0 -d 2 -p rtProtoDV -e 7 -c 0 -i 32 -a 0 -x {0.2 2.2 -1 ------- null}
+ -t 0.201289788487335 -s 0 -d 3 -p rtProtoDV -e 7 -c 0 -i 33 -a 0 -x {0.2 3.1 -1 ------- null}
- -t 0.201289788487335 -s 0 -d 3 -p rtProtoDV -e 7 -c 0 -i 33 -a 0 -x {0.2 3.1 -1 ------- null}
h -t 0.201289788487335 -s 0 -d 3 -p rtProtoDV -e 7 -c 0 -i 33 -a 0 -x {0.2 3.1 -1 ------- null}
+ -t 0.201289788487335 -s 0 -d 4 -p rtProtoDV -e 7 -c 0 -i 34 -a 0 -x {0.2 4.1 -1 ------- null}
- -t 0.201289788487335 -s 0 -d 4 -p rtProtoDV -e 7 -c 0 -i 34 -a 0 -x {0.2 4.1 -1 ------- null}
h -t 0.201289788487335 -s 0 -d 4 -p rtProtoDV -e 7 -c 0 -i 34 -a 0 -x {0.2 4.1 -1 ------- null}
+ -t 0.201289788487335 -s 0 -d 5 -p rtProtoDV -e 7 -c 0 -i 35 -a 0 -x {0.2 5.1 -1 ------- null}
- -t 0.201289788487335 -s 0 -d 5 -p rtProtoDV -e 7 -c 0 -i 35 -a 0 -x {0.2 5.1 -1 ------- null}
h -t 0.201289788487335 -s 0 -d 5 -p rtProtoDV -e 7 -c 0 -i 35 -a 0 -x {0.2 5.1 -1 ------- null}
r -t 0.201289788487335 -s 2 -d 0 -p rtProtoDV -e 7 -c 0 -i 11 -a 0 -x {2.2 0.2 -1 ------- null}
r -t 0.201289788487335 -s 2 -d 6 -p rtProtoDV -e 7 -c 0 -i 13 -a 0 -x {2.2 6.1 -1 ------- null}
+ -t 0.201289788487335 -s 6 -d 2 -p rtProtoDV -e 7 -c 0 -i 36 -a 0 -x {6.1 2.2 -1 ------- null}
- -t 0.201289788487335 -s 6 -d 2 -p rtProtoDV -e 7 -c 0 -i 36 -a 0 -x {6.1 2.2 -1 ------- null}
h -t 0.201289788487335 -s 6 -d 2 -p rtProtoDV -e 7 -c 0 -i 36 -a 0 -x {6.1 2.2 -1 ------- null}
r -t 0.201289788487335 -s 3 -d 0 -p rtProtoDV -e 7 -c 0 -i 14 -a 0 -x {3.1 0.2 -1 ------- null}
r -t 0.201289788487335 -s 4 -d 0 -p rtProtoDV -e 7 -c 0 -i 15 -a 0 -x {4.1 0.2 -1 ------- null}
+ -t 0.201289788487335 -s 0 -d 1 -p rtProtoDV -e 7 -c 0 -i 37 -a 0 -x {0.2 1.1 -1 ------- null}
+ -t 0.201289788487335 -s 0 -d 2 -p rtProtoDV -e 7 -c 0 -i 38 -a 0 -x {0.2 2.2 -1 ------- null}
+ -t 0.201289788487335 -s 0 -d 3 -p rtProtoDV -e 7 -c 0 -i 39 -a 0 -x {0.2 3.1 -1 ------- null}
+ -t 0.201289788487335 -s 0 -d 4 -p rtProtoDV -e 7 -c 0 -i 40 -a 0 -x {0.2 4.1 -1 ------- null}
+ -t 0.201289788487335 -s 0 -d 5 -p rtProtoDV -e 7 -c 0 -i 41 -a 0 -x {0.2 5.1 -1 ------- null}
r -t 0.201289788487335 -s 5 -d 0 -p rtProtoDV -e 7 -c 0 -i 16 -a 0 -x {5.1 0.2 -1 ------- null}
+ -t 0.201289788487335 -s 0 -d 1 -p rtProtoDV -e 7 -c 0 -i 42 -a 0 -x {0.2 1.1 -1 ------- null}
+ -t 0.201289788487335 -s 0 -d 2 -p rtProtoDV -e 7 -c 0 -i 43 -a 0 -x {0.2 2.2 -1 ------- null}
+ -t 0.201289788487335 -s 0 -d 3 -p rtProtoDV -e 7 -c 0 -i 44 -a 0 -x {0.2 3.1 -1 ------- null}
+ -t 0.201289788487335 -s 0 -d 4 -p rtProtoDV -e 7 -c 0 -i 45 -a 0 -x {0.2 4.1 -1 ------- null}
+ -t 0.201289788487335 -s 0 -d 5 -p rtProtoDV -e 7 -c 0 -i 46 -a 0 -x {0.2 5.1 -1 ------- null}
r -t 0.201849788487335 -s 1 -d 0 -p rtProtoDV -e 7 -c 0 -i 10 -a 0 -x {1.1 2.2 -1 ------- null}
+ -t 0.201849788487335 -s 0 -d 2 -p rtProtoDV -e 7 -c 0 -i 10 -a 0 -x {1.1 2.2 -1 ------- null}
r -t 0.201849788487335 -s 2 -d 0 -p rtProtoDV -e 7 -c 0 -i 12 -a 0 -x {2.2 1.1 -1 ------- null}
+ -t 0.201849788487335 -s 0 -d 1 -p rtProtoDV -e 7 -c 0 -i 12 -a 0 -x {2.2 1.1 -1 ------- null}
- -t 0.201849788487335 -s 0 -d 1 -p rtProtoDV -e 7 -c 0 -i 37 -a 0 -x {0.2 1.1 -1 ------- null}
h -t 0.201849788487335 -s 0 -d 1 -p rtProtoDV -e 7 -c 0 -i 37 -a 0 -x {0.2 1.1 -1 ------- null}
- -t 0.201849788487335 -s 0 -d 2 -p rtProtoDV -e 7 -c 0 -i 38 -a 0 -x {0.2 2.2 -1 ------- null}
h -t 0.201849788487335 -s 0 -d 2 -p rtProtoDV -e 7 -c 0 -i 38 -a 0 -x {0.2 2.2 -1 ------- null}
- -t 0.201849788487335 -s 0 -d 3 -p rtProtoDV -e 7 -c 0 -i 39 -a 0 -x {0.2 3.1 -1 ------- null}
h -t 0.201849788487335 -s 0 -d 3 -p rtProtoDV -e 7 -c 0 -i 39 -a 0 -x {0.2 3.1 -1 ------- null}
- -t 0.201849788487335 -s 0 -d 4 -p rtProtoDV -e 7 -c 0 -i 40 -a 0 -x {0.2 4.1 -1 ------- null}
h -t 0.201849788487335 -s 0 -d 4 -p rtProtoDV -e 7 -c 0 -i 40 -a 0 -x {0.2 4.1 -1 ------- null}
- -t 0.201849788487335 -s 0 -d 5 -p rtProtoDV -e 7 -c 0 -i 41 -a 0 -x {0.2 5.1 -1 ------- null}
h -t 0.201849788487335 -s 0 -d 5 -p rtProtoDV -e 7 -c 0 -i 41 -a 0 -x {0.2 5.1 -1 ------- null}
- -t 0.202409788487335 -s 0 -d 1 -p rtProtoDV -e 7 -c 0 -i 42 -a 0 -x {0.2 1.1 -1 ------- null}
h -t 0.202409788487335 -s 0 -d 1 -p rtProtoDV -e 7 -c 0 -i 42 -a 0 -x {0.2 1.1 -1 ------- null}
- -t 0.202409788487335 -s 0 -d 2 -p rtProtoDV -e 7 -c 0 -i 43 -a 0 -x {0.2 2.2 -1 ------- null}
h -t 0.202409788487335 -s 0 -d 2 -p rtProtoDV -e 7 -c 0 -i 43 -a 0 -x {0.2 2.2 -1 ------- null}
- -t 0.202409788487335 -s 0 -d 3 -p rtProtoDV -e 7 -c 0 -i 44 -a 0 -x {0.2 3.1 -1 ------- null}
h -t 0.202409788487335 -s 0 -d 3 -p rtProtoDV -e 7 -c 0 -i 44 -a 0 -x {0.2 3.1 -1 ------- null}
- -t 0.202409788487335 -s 0 -d 4 -p rtProtoDV -e 7 -c 0 -i 45 -a 0 -x {0.2 4.1 -1 ------- null}
h -t 0.202409788487335 -s 0 -d 4 -p rtProtoDV -e 7 -c 0 -i 45 -a 0 -x {0.2 4.1 -1 ------- null}
- -t 0.202409788487335 -s 0 -d 5 -p rtProtoDV -e 7 -c 0 -i 46 -a 0 -x {0.2 5.1 -1 ------- null}
h -t 0.202409788487335 -s 0 -d 5 -p rtProtoDV -e 7 -c 0 -i 46 -a 0 -x {0.2 5.1 -1 ------- null}
- -t 0.202969788487335 -s 0 -d 1 -p rtProtoDV -e 7 -c 0 -i 12 -a 0 -x {2.2 1.1 -1 ------- null}
h -t 0.202969788487335 -s 0 -d 1 -p rtProtoDV -e 7 -c 0 -i 12 -a 0 -x {2.2 1.1 -1 ------- null}
- -t 0.202969788487335 -s 0 -d 2 -p rtProtoDV -e 7 -c 0 -i 10 -a 0 -x {1.1 2.2 -1 ------- null}
h -t 0.202969788487335 -s 0 -d 2 -p rtProtoDV -e 7 -c 0 -i 10 -a 0 -x {1.1 2.2 -1 ------- null}
r -t 0.208222330218583 -s 0 -d 2 -p rtProtoDV -e 7 -c 0 -i 17 -a 0 -x {0.2 1.1 -1 ------- null}
+ -t 0.208222330218583 -s 2 -d 0 -p rtProtoDV -e 7 -c 0 -i 17 -a 0 -x {0.2 1.1 -1 ------- null}
- -t 0.208222330218583 -s 2 -d 0 -p rtProtoDV -e 7 -c 0 -i 17 -a 0 -x {0.2 1.1 -1 ------- null}
h -t 0.208222330218583 -s 2 -d 0 -p rtProtoDV -e 7 -c 0 -i 17 -a 0 -x {0.2 1.1 -1 ------- null}
r -t 0.208222330218583 -s 0 -d 3 -p rtProtoDV -e 7 -c 0 -i 19 -a 0 -x {0.2 3.1 -1 ------- null}
+ -t 0.208222330218583 -s 3 -d 0 -p rtProtoDV -e 7 -c 0 -i 47 -a 0 -x {3.1 0.2 -1 ------- null}
- -t 0.208222330218583 -s 3 -d 0 -p rtProtoDV -e 7 -c 0 -i 47 -a 0 -x {3.1 0.2 -1 ------- null}
h -t 0.208222330218583 -s 3 -d 0 -p rtProtoDV -e 7 -c 0 -i 47 -a 0 -x {3.1 0.2 -1 ------- null}
r -t 0.208222330218583 -s 0 -d 4 -p rtProtoDV -e 7 -c 0 -i 20 -a 0 -x {0.2 4.1 -1 ------- null}
+ -t 0.208222330218583 -s 4 -d 0 -p rtProtoDV -e 7 -c 0 -i 48 -a 0 -x {4.1 0.2 -1 ------- null}
- -t 0.208222330218583 -s 4 -d 0 -p rtProtoDV -e 7 -c 0 -i 48 -a 0 -x {4.1 0.2 -1 ------- null}
h -t 0.208222330218583 -s 4 -d 0 -p rtProtoDV -e 7 -c 0 -i 48 -a 0 -x {4.1 0.2 -1 ------- null}
r -t 0.208222330218583 -s 0 -d 5 -p rtProtoDV -e 7 -c 0 -i 21 -a 0 -x {0.2 5.1 -1 ------- null}
+ -t 0.208222330218583 -s 5 -d 0 -p rtProtoDV -e 7 -c 0 -i 49 -a 0 -x {5.1 0.2 -1 ------- null}
- -t 0.208222330218583 -s 5 -d 0 -p rtProtoDV -e 7 -c 0 -i 49 -a 0 -x {5.1 0.2 -1 ------- null}
h -t 0.208222330218583 -s 5 -d 0 -p rtProtoDV -e 7 -c 0 -i 49 -a 0 -x {5.1 0.2 -1 ------- null}
r -t 0.208222330218583 -s 1 -d 0 -p rtProtoDV -e 7 -c 0 -i 22 -a 0 -x {1.1 0.2 -1 ------- null}
r -t 0.208222330218583 -s 1 -d 2 -p rtProtoDV -e 7 -c 0 -i 23 -a 0 -x {1.1 2.2 -1 ------- null}
+ -t 0.208222330218583 -s 2 -d 0 -p rtProtoDV -e 7 -c 0 -i 50 -a 0 -x {2.2 0.2 -1 ------- null}
+ -t 0.208222330218583 -s 2 -d 1 -p rtProtoDV -e 7 -c 0 -i 51 -a 0 -x {2.2 1.1 -1 ------- null}
- -t 0.208222330218583 -s 2 -d 1 -p rtProtoDV -e 7 -c 0 -i 51 -a 0 -x {2.2 1.1 -1 ------- null}
h -t 0.208222330218583 -s 2 -d 1 -p rtProtoDV -e 7 -c 0 -i 51 -a 0 -x {2.2 1.1 -1 ------- null}
+ -t 0.208222330218583 -s 2 -d 6 -p rtProtoDV -e 7 -c 0 -i 52 -a 0 -x {2.2 6.1 -1 ------- null}
- -t 0.208222330218583 -s 2 -d 6 -p rtProtoDV -e 7 -c 0 -i 52 -a 0 -x {2.2 6.1 -1 ------- null}
h -t 0.208222330218583 -s 2 -d 6 -p rtProtoDV -e 7 -c 0 -i 52 -a 0 -x {2.2 6.1 -1 ------- null}
r -t 0.208222330218583 -s 6 -d 2 -p rtProtoDV -e 7 -c 0 -i 24 -a 0 -x {6.1 2.2 -1 ------- null}
+ -t 0.208222330218583 -s 2 -d 0 -p rtProtoDV -e 7 -c 0 -i 53 -a 0 -x {2.2 0.2 -1 ------- null}
+ -t 0.208222330218583 -s 2 -d 1 -p rtProtoDV -e 7 -c 0 -i 54 -a 0 -x {2.2 1.1 -1 ------- null}
+ -t 0.208222330218583 -s 2 -d 6 -p rtProtoDV -e 7 -c 0 -i 55 -a 0 -x {2.2 6.1 -1 ------- null}
r -t 0.208782330218583 -s 0 -d 2 -p rtProtoDV -e 7 -c 0 -i 18 -a 0 -x {0.2 2.2 -1 ------- null}
- -t 0.208782330218583 -s 2 -d 0 -p rtProtoDV -e 7 -c 0 -i 50 -a 0 -x {2.2 0.2 -1 ------- null}
h -t 0.208782330218583 -s 2 -d 0 -p rtProtoDV -e 7 -c 0 -i 50 -a 0 -x {2.2 0.2 -1 ------- null}
- -t 0.208782330218583 -s 2 -d 1 -p rtProtoDV -e 7 -c 0 -i 54 -a 0 -x {2.2 1.1 -1 ------- null}
h -t 0.208782330218583 -s 2 -d 1 -p rtProtoDV -e 7 -c 0 -i 54 -a 0 -x {2.2 1.1 -1 ------- null}
- -t 0.208782330218583 -s 2 -d 6 -p rtProtoDV -e 7 -c 0 -i 55 -a 0 -x {2.2 6.1 -1 ------- null}
h -t 0.208782330218583 -s 2 -d 6 -p rtProtoDV -e 7 -c 0 -i 55 -a 0 -x {2.2 6.1 -1 ------- null}
- -t 0.209342330218583 -s 2 -d 0 -p rtProtoDV -e 7 -c 0 -i 53 -a 0 -x {2.2 0.2 -1 ------- null}
h -t 0.209342330218583 -s 2 -d 0 -p rtProtoDV -e 7 -c 0 -i 53 -a 0 -x {2.2 0.2 -1 ------- null}
+ -t 0.22058669092161 -s 4 -d 0 -p rtProtoDV -e 7 -c 0 -i 56 -a 0 -x {4.1 0.2 -1 ------- null}
- -t 0.22058669092161 -s 4 -d 0 -p rtProtoDV -e 7 -c 0 -i 56 -a 0 -x {4.1 0.2 -1 ------- null}
h -t 0.22058669092161 -s 4 -d 0 -p rtProtoDV -e 7 -c 0 -i 56 -a 0 -x {4.1 0.2 -1 ------- null}
r -t 0.24518133552271 -s 0 -d 2 -p rtProtoDV -e 7 -c 0 -i 25 -a 0 -x {0.2 1.1 -1 ------- null}
+ -t 0.24518133552271 -s 2 -d 1 -p rtProtoDV -e 7 -c 0 -i 25 -a 0 -x {0.2 1.1 -1 ------- null}
- -t 0.24518133552271 -s 2 -d 1 -p rtProtoDV -e 7 -c 0 -i 25 -a 0 -x {0.2 1.1 -1 ------- null}
h -t 0.24518133552271 -s 2 -d 1 -p rtProtoDV -e 7 -c 0 -i 25 -a 0 -x {0.2 1.1 -1 ------- null}
r -t 0.24518133552271 -s 0 -d 3 -p rtProtoDV -e 7 -c 0 -i 27 -a 0 -x {0.2 3.1 -1 ------- null}
r -t 0.24518133552271 -s 0 -d 4 -p rtProtoDV -e 7 -c 0 -i 28 -a 0 -x {0.2 4.1 -1 ------- null}
r -t 0.24518133552271 -s 0 -d 5 -p rtProtoDV -e 7 -c 0 -i 29 -a 0 -x {0.2 5.1 -1 ------- null}
r -t 0.24574133552271 -s 0 -d 2 -p rtProtoDV -e 7 -c 0 -i 26 -a 0 -x {0.2 2.2 -1 ------- null}
r -t 0.257040885882155 -s 6 -d 2 -p rtProtoDV -e 7 -c 0 -i 30 -a 0 -x {6.1 2.2 -1 ------- null}
+ -t 0.277940357931862 -s 1 -d 0 -p rtProtoDV -e 7 -c 0 -i 57 -a 0 -x {1.1 0.2 -1 ------- null}
- -t 0.277940357931862 -s 1 -d 0 -p rtProtoDV -e 7 -c 0 -i 57 -a 0 -x {1.1 0.2 -1 ------- null}
h -t 0.277940357931862 -s 1 -d 0 -p rtProtoDV -e 7 -c 0 -i 57 -a 0 -x {1.1 0.2 -1 ------- null}
+ -t 0.277940357931862 -s 1 -d 2 -p rtProtoDV -e 7 -c 0 -i 58 -a 0 -x {1.1 2.2 -1 ------- null}
- -t 0.277940357931862 -s 1 -d 2 -p rtProtoDV -e 7 -c 0 -i 58 -a 0 -x {1.1 2.2 -1 ------- null}
h -t 0.277940357931862 -s 1 -d 2 -p rtProtoDV -e 7 -c 0 -i 58 -a 0 -x {1.1 2.2 -1 ------- null}
r -t 0.301849788487335 -s 0 -d 1 -p rtProtoDV -e 7 -c 0 -i 31 -a 0 -x {0.2 1.1 -1 ------- null}
r -t 0.301849788487335 -s 0 -d 2 -p rtProtoDV -e 7 -c 0 -i 32 -a 0 -x {0.2 2.2 -1 ------- null}
r -t 0.301849788487335 -s 0 -d 3 -p rtProtoDV -e 7 -c 0 -i 33 -a 0 -x {0.2 3.1 -1 ------- null}
+ -t 0.301849788487335 -s 3 -d 0 -p rtProtoDV -e 7 -c 0 -i 59 -a 0 -x {3.1 0.2 -1 ------- null}
- -t 0.301849788487335 -s 3 -d 0 -p rtProtoDV -e 7 -c 0 -i 59 -a 0 -x {3.1 0.2 -1 ------- null}
h -t 0.301849788487335 -s 3 -d 0 -p rtProtoDV -e 7 -c 0 -i 59 -a 0 -x {3.1 0.2 -1 ------- null}
r -t 0.301849788487335 -s 0 -d 4 -p rtProtoDV -e 7 -c 0 -i 34 -a 0 -x {0.2 4.1 -1 ------- null}
+ -t 0.301849788487335 -s 4 -d 0 -p rtProtoDV -e 7 -c 0 -i 60 -a 0 -x {4.1 0.2 -1 ------- null}
- -t 0.301849788487335 -s 4 -d 0 -p rtProtoDV -e 7 -c 0 -i 60 -a 0 -x {4.1 0.2 -1 ------- null}
h -t 0.301849788487335 -s 4 -d 0 -p rtProtoDV -e 7 -c 0 -i 60 -a 0 -x {4.1 0.2 -1 ------- null}
r -t 0.301849788487335 -s 0 -d 5 -p rtProtoDV -e 7 -c 0 -i 35 -a 0 -x {0.2 5.1 -1 ------- null}
+ -t 0.301849788487335 -s 5 -d 0 -p rtProtoDV -e 7 -c 0 -i 61 -a 0 -x {5.1 0.2 -1 ------- null}
- -t 0.301849788487335 -s 5 -d 0 -p rtProtoDV -e 7 -c 0 -i 61 -a 0 -x {5.1 0.2 -1 ------- null}
h -t 0.301849788487335 -s 5 -d 0 -p rtProtoDV -e 7 -c 0 -i 61 -a 0 -x {5.1 0.2 -1 ------- null}
r -t 0.301849788487335 -s 6 -d 2 -p rtProtoDV -e 7 -c 0 -i 36 -a 0 -x {6.1 2.2 -1 ------- null}
r -t 0.302409788487335 -s 0 -d 1 -p rtProtoDV -e 7 -c 0 -i 37 -a 0 -x {0.2 1.1 -1 ------- null}
r -t 0.302409788487335 -s 0 -d 2 -p rtProtoDV -e 7 -c 0 -i 38 -a 0 -x {0.2 2.2 -1 ------- null}
r -t 0.302409788487335 -s 0 -d 3 -p rtProtoDV -e 7 -c 0 -i 39 -a 0 -x {0.2 3.1 -1 ------- null}
r -t 0.302409788487335 -s 0 -d 4 -p rtProtoDV -e 7 -c 0 -i 40 -a 0 -x {0.2 4.1 -1 ------- null}
r -t 0.302409788487335 -s 0 -d 5 -p rtProtoDV -e 7 -c 0 -i 41 -a 0 -x {0.2 5.1 -1 ------- null}
r -t 0.302969788487335 -s 0 -d 1 -p rtProtoDV -e 7 -c 0 -i 42 -a 0 -x {0.2 1.1 -1 ------- null}
r -t 0.302969788487335 -s 0 -d 2 -p rtProtoDV -e 7 -c 0 -i 43 -a 0 -x {0.2 2.2 -1 ------- null}
r -t 0.302969788487335 -s 0 -d 3 -p rtProtoDV -e 7 -c 0 -i 44 -a 0 -x {0.2 3.1 -1 ------- null}
r -t 0.302969788487335 -s 0 -d 4 -p rtProtoDV -e 7 -c 0 -i 45 -a 0 -x {0.2 4.1 -1 ------- null}
r -t 0.302969788487335 -s 0 -d 5 -p rtProtoDV -e 7 -c 0 -i 46 -a 0 -x {0.2 5.1 -1 ------- null}
r -t 0.303529788487335 -s 0 -d 1 -p rtProtoDV -e 7 -c 0 -i 12 -a 0 -x {2.2 1.1 -1 ------- null}
r -t 0.303529788487335 -s 0 -d 2 -p rtProtoDV -e 7 -c 0 -i 10 -a 0 -x {1.1 2.2 -1 ------- null}
r -t 0.308782330218583 -s 2 -d 0 -p rtProtoDV -e 7 -c 0 -i 17 -a 0 -x {0.2 1.1 -1 ------- null}
+ -t 0.308782330218583 -s 0 -d 1 -p rtProtoDV -e 7 -c 0 -i 17 -a 0 -x {0.2 1.1 -1 ------- null}
- -t 0.308782330218583 -s 0 -d 1 -p rtProtoDV -e 7 -c 0 -i 17 -a 0 -x {0.2 1.1 -1 ------- null}
h -t 0.308782330218583 -s 0 -d 1 -p rtProtoDV -e 7 -c 0 -i 17 -a 0 -x {0.2 1.1 -1 ------- null}
r -t 0.308782330218583 -s 3 -d 0 -p rtProtoDV -e 7 -c 0 -i 47 -a 0 -x {3.1 0.2 -1 ------- null}
r -t 0.308782330218583 -s 4 -d 0 -p rtProtoDV -e 7 -c 0 -i 48 -a 0 -x {4.1 0.2 -1 ------- null}
r -t 0.308782330218583 -s 5 -d 0 -p rtProtoDV -e 7 -c 0 -i 49 -a 0 -x {5.1 0.2 -1 ------- null}
r -t 0.308782330218583 -s 2 -d 1 -p rtProtoDV -e 7 -c 0 -i 51 -a 0 -x {2.2 1.1 -1 ------- null}
r -t 0.308782330218583 -s 2 -d 6 -p rtProtoDV -e 7 -c 0 -i 52 -a 0 -x {2.2 6.1 -1 ------- null}
+ -t 0.308782330218583 -s 6 -d 2 -p rtProtoDV -e 7 -c 0 -i 62 -a 0 -x {6.1 2.2 -1 ------- null}
- -t 0.308782330218583 -s 6 -d 2 -p rtProtoDV -e 7 -c 0 -i 62 -a 0 -x {6.1 2.2 -1 ------- null}
h -t 0.308782330218583 -s 6 -d 2 -p rtProtoDV -e 7 -c 0 -i 62 -a 0 -x {6.1 2.2 -1 ------- null}
r -t 0.309342330218583 -s 2 -d 0 -p rtProtoDV -e 7 -c 0 -i 50 -a 0 -x {2.2 0.2 -1 ------- null}
r -t 0.309342330218583 -s 2 -d 1 -p rtProtoDV -e 7 -c 0 -i 54 -a 0 -x {2.2 1.1 -1 ------- null}
r -t 0.309342330218583 -s 2 -d 6 -p rtProtoDV -e 7 -c 0 -i 55 -a 0 -x {2.2 6.1 -1 ------- null}
r -t 0.309902330218583 -s 2 -d 0 -p rtProtoDV -e 7 -c 0 -i 53 -a 0 -x {2.2 0.2 -1 ------- null}
r -t 0.32114669092161 -s 4 -d 0 -p rtProtoDV -e 7 -c 0 -i 56 -a 0 -x {4.1 0.2 -1 ------- null}
r -t 0.34574133552271 -s 2 -d 1 -p rtProtoDV -e 7 -c 0 -i 25 -a 0 -x {0.2 1.1 -1 ------- null}
r -t 0.378500357931862 -s 1 -d 0 -p rtProtoDV -e 7 -c 0 -i 57 -a 0 -x {1.1 0.2 -1 ------- null}
r -t 0.378500357931862 -s 1 -d 2 -p rtProtoDV -e 7 -c 0 -i 58 -a 0 -x {1.1 2.2 -1 ------- null}
+ -t 0.399577726796073 -s 5 -d 0 -p rtProtoDV -e 7 -c 0 -i 63 -a 0 -x {5.1 0.2 -1 ------- null}
- -t 0.399577726796073 -s 5 -d 0 -p rtProtoDV -e 7 -c 0 -i 63 -a 0 -x {5.1 0.2 -1 ------- null}
h -t 0.399577726796073 -s 5 -d 0 -p rtProtoDV -e 7 -c 0 -i 63 -a 0 -x {5.1 0.2 -1 ------- null}
r -t 0.402409788487335 -s 3 -d 0 -p rtProtoDV -e 7 -c 0 -i 59 -a 0 -x {3.1 0.2 -1 ------- null}
r -t 0.402409788487335 -s 4 -d 0 -p rtProtoDV -e 7 -c 0 -i 60 -a 0 -x {4.1 0.2 -1 ------- null}
r -t 0.402409788487335 -s 5 -d 0 -p rtProtoDV -e 7 -c 0 -i 61 -a 0 -x {5.1 0.2 -1 ------- null}
r -t 0.409342330218583 -s 0 -d 1 -p rtProtoDV -e 7 -c 0 -i 17 -a 0 -x {0.2 1.1 -1 ------- null}
r -t 0.409342330218583 -s 6 -d 2 -p rtProtoDV -e 7 -c 0 -i 62 -a 0 -x {6.1 2.2 -1 ------- null}
+ -t 0.5 -s 0 -d 2 -p cbr -e 500 -c 0 -i 64 -a 0 -x {0.0 2.0 0 ------- null}
- -t 0.5 -s 0 -d 2 -p cbr -e 500 -c 0 -i 64 -a 0 -x {0.0 2.0 0 ------- null}
h -t 0.5 -s 0 -d 2 -p cbr -e 500 -c 0 -i 64 -a 0 -x {0.0 2.0 -1 ------- null}
r -t 0.500137726796073 -s 5 -d 0 -p rtProtoDV -e 7 -c 0 -i 63 -a 0 -x {5.1 0.2 -1 ------- null}
+ -t 0.6 -s 0 -d 2 -p cbr -e 500 -c 0 -i 65 -a 0 -x {0.0 2.0 1 ------- null}
- -t 0.6 -s 0 -d 2 -p cbr -e 500 -c 0 -i 65 -a 0 -x {0.0 2.0 1 ------- null}
h -t 0.6 -s 0 -d 2 -p cbr -e 500 -c 0 -i 65 -a 0 -x {0.0 2.0 -1 ------- null}
r -t 0.64 -s 0 -d 2 -p cbr -e 500 -c 0 -i 64 -a 0 -x {0.0 2.0 0 ------- null}
+ -t 0.7 -s 0 -d 2 -p cbr -e 500 -c 0 -i 66 -a 0 -x {0.0 2.0 2 ------- null}
- -t 0.7 -s 0 -d 2 -p cbr -e 500 -c 0 -i 66 -a 0 -x {0.0 2.0 2 ------- null}
h -t 0.7 -s 0 -d 2 -p cbr -e 500 -c 0 -i 66 -a 0 -x {0.0 2.0 -1 ------- null}
r -t 0.74 -s 0 -d 2 -p cbr -e 500 -c 0 -i 65 -a 0 -x {0.0 2.0 1 ------- null}
+ -t 0.8 -s 0 -d 2 -p cbr -e 500 -c 0 -i 67 -a 0 -x {0.0 2.0 3 ------- null}
- -t 0.8 -s 0 -d 2 -p cbr -e 500 -c 0 -i 67 -a 0 -x {0.0 2.0 3 ------- null}
h -t 0.8 -s 0 -d 2 -p cbr -e 500 -c 0 -i 67 -a 0 -x {0.0 2.0 -1 ------- null}
r -t 0.84 -s 0 -d 2 -p cbr -e 500 -c 0 -i 66 -a 0 -x {0.0 2.0 2 ------- null}
+ -t 0.9 -s 0 -d 2 -p cbr -e 500 -c 0 -i 68 -a 0 -x {0.0 2.0 4 ------- null}
- -t 0.9 -s 0 -d 2 -p cbr -e 500 -c 0 -i 68 -a 0 -x {0.0 2.0 4 ------- null}
h -t 0.9 -s 0 -d 2 -p cbr -e 500 -c 0 -i 68 -a 0 -x {0.0 2.0 -1 ------- null}
r -t 0.94 -s 0 -d 2 -p cbr -e 500 -c 0 -i 67 -a 0 -x {0.0 2.0 3 ------- null}
+ -t 1 -s 0 -d 2 -p cbr -e 500 -c 0 -i 69 -a 0 -x {0.0 2.0 5 ------- null}
- -t 1 -s 0 -d 2 -p cbr -e 500 -c 0 -i 69 -a 0 -x {0.0 2.0 5 ------- null}
h -t 1 -s 0 -d 2 -p cbr -e 500 -c 0 -i 69 -a 0 -x {0.0 2.0 -1 ------- null}
l -t 1 -s 2 -d 0 -S DOWN
v -t 1 link-down 1 2 0
l -t 1 -s 2 -d 0 -S DOWN
v -t 1 link-down 1 2 0
d -t 1 -s 0 -d 2 -p cbr -e 500 -c 0 -i 68 -a 0 -x {0.0 2.0 4 ------- null}
d -t 1 -s 0 -d 2 -p cbr -e 500 -c 0 -i 69 -a 0 -x {0.0 2.0 5 ------- null}
l -t 1 -s 0 -d 2 -S DOWN
v -t 1 link-down 1 0 2
l -t 1 -s 0 -d 2 -S DOWN
v -t 1 link-down 1 0 2
+ -t 1 -s 0 -d 1 -p rtProtoDV -e 7 -c 0 -i 70 -a 0 -x {0.2 1.1 -1 ------- null}
- -t 1 -s 0 -d 1 -p rtProtoDV -e 7 -c 0 -i 70 -a 0 -x {0.2 1.1 -1 ------- null}
h -t 1 -s 0 -d 1 -p rtProtoDV -e 7 -c 0 -i 70 -a 0 -x {0.2 1.1 -1 ------- null}
+ -t 1 -s 0 -d 3 -p rtProtoDV -e 7 -c 0 -i 71 -a 0 -x {0.2 3.1 -1 ------- null}
- -t 1 -s 0 -d 3 -p rtProtoDV -e 7 -c 0 -i 71 -a 0 -x {0.2 3.1 -1 ------- null}
h -t 1 -s 0 -d 3 -p rtProtoDV -e 7 -c 0 -i 71 -a 0 -x {0.2 3.1 -1 ------- null}
+ -t 1 -s 0 -d 4 -p rtProtoDV -e 7 -c 0 -i 72 -a 0 -x {0.2 4.1 -1 ------- null}